                               Psi4 1.2a1.dev875

  ==> Input File <==

--------------------------------------------------------------------------
memory 60 Gb

molecule protein_30 {
0 1
 N   18.626  30.444   6.627
 C   17.853  29.516   5.837
 C   16.945  30.292   4.886
 O   15.843  30.678   5.237
 C   17.047  28.642   6.811
 C   16.316  27.513   6.146
 O   16.236  27.458   4.905
 O   15.762  26.696   6.882
 N   17.407  27.054  -1.437
 C   17.227  26.751  -0.026
 C   18.555  26.446   0.653
 O   19.003  25.309   0.692
 C   16.258  25.572   0.084
 C   15.759  25.336   1.493
 O   16.399  25.780   2.453
 O   14.731  24.675   1.645
 H   18.180  30.990   7.295
 H   18.510  28.835   5.249
 H   16.336  29.276   7.377
 H   17.778  28.186   7.516
 H   15.845  26.702   7.843
 H   17.860  26.421  -2.023
 H   16.724  27.595   0.500
 H   16.724  24.663  -0.337
 H   15.363  25.845  -0.519
 H   16.737  25.171   3.109
 H   19.646  30.419   6.619
 H   17.295  30.415   3.850
 H   16.947  27.858  -1.864
 H   19.060  27.284   1.155
}

set {
basis cc-pvqz
scf_type df
guess sad
DF_SCF_TYPE DFJK
}

energy('HF')
--------------------------------------------------------------------------

    Molecular point group: c1

    Geometry (in Angstrom), charge = 0, multiplicity = 1:

       Center              X                  Y                   Z               Mass
    ------------   -----------------  -----------------  -----------------  -----------------
           N          1.759981620253     3.071942570653     3.302034477710    14.003074004780
           C          0.986981620253     2.143942570653     2.512034477710    12.000000000000
           C          0.078981620253     2.919942570653     1.561034477710    12.000000000000
           O         -1.023018379747     3.305942570653     1.912034477710    15.994914619560
           C          0.180981620253     1.269942570653     3.486034477710    12.000000000000
           C         -0.550018379747     0.140942570653     2.821034477710    12.000000000000
           O         -0.630018379747     0.085942570653     1.580034477710    15.994914619560
           O         -1.104018379747    -0.676057429347     3.557034477710    15.994914619560
           N          0.540981620253    -0.318057429347    -4.761965522290    14.003074004780
           C          0.360981620253    -0.621057429347    -3.350965522290    12.000000000000
           C          1.688981620253    -0.926057429347    -2.671965522290    12.000000000000
           O          2.136981620253    -2.063057429347    -2.632965522290    15.994914619560
           C         -0.608018379747    -1.800057429347    -3.240965522290    12.000000000000
           C         -1.107018379747    -2.036057429347    -1.831965522290    12.000000000000
           O         -0.467018379747    -1.592057429347    -0.871965522290    15.994914619560
           O         -2.135018379747    -2.697057429347    -1.679965522290    15.994914619560
           H          1.313981620253     3.617942570653     3.970034477710     1.007825032070
           H          1.643981620253     1.462942570653     1.924034477710     1.007825032070
           H         -0.530018379747     1.903942570653     4.052034477710     1.007825032070
           H          0.911981620253     0.813942570653     4.191034477710     1.007825032070
           H         -1.021018379747    -0.670057429347     4.518034477710     1.007825032070
           H          0.993981620253    -0.951057429347    -5.347965522290     1.007825032070
           H         -0.142018379747     0.222942570653    -2.824965522290     1.007825032070
           H         -0.142018379747    -2.709057429347    -3.661965522290     1.007825032070
           H         -1.503018379747    -1.527057429347    -3.843965522290     1.007825032070
           H         -0.129018379747    -2.201057429347    -0.215965522290     1.007825032070
           H          2.779981620253     3.046942570653     3.294034477710     1.007825032070
           H          0.428981620253     3.042942570653     0.525034477710     1.007825032070
           H          0.080981620253     0.485942570653    -5.188965522290     1.007825032070
           H          2.193981620253    -0.088057429347    -2.169965522290     1.007825032070

  Charge       = 0
  Multiplicity = 1
  Basis Set: CC-PVQZ
    Blend: CC-PVQZ
  Basis Set: (CC-PVQZ AUX)
    Blend: CC-PVQZ-JKFIT

    Orbital Energies (a.u.)
    -----------------------

    Doubly Occupied:

       1A    -20.638065     2A    -20.591440     3A    -20.560798
       4A    -20.555876     5A    -20.530717     6A    -20.506468
       7A    -15.555429     8A    -15.545155     9A    -11.388638
      10A    -11.357872    11A    -11.336888    12A    -11.334120
      13A    -11.294343    14A    -11.282809    15A    -11.260812
      16A    -11.231219    17A     -1.522058    18A     -1.488732
      19A     -1.390660    20A     -1.388473    21A     -1.348645
      22A     -1.324686    23A     -1.212068    24A     -1.196389
      25A     -1.052268    26A     -1.036703    27A     -0.946711
      28A     -0.929574    29A     -0.902126    30A     -0.863836
      31A     -0.799823    32A     -0.788087    33A     -0.745031
      34A     -0.724970    35A     -0.714409    36A     -0.688431
      37A     -0.686111    38A     -0.685754    39A     -0.679755
      40A     -0.656657    41A     -0.656033    42A     -0.646311
      43A     -0.639715    44A     -0.627750    45A     -0.622928
      46A     -0.615843    47A     -0.570659    48A     -0.557553
      49A     -0.552955    50A     -0.529528    51A     -0.523772
      52A     -0.514524    53A     -0.512468    54A     -0.498292
      55A     -0.467646    56A     -0.456915    57A     -0.449218
      58A     -0.441844    59A     -0.439916    60A     -0.428603
      61A     -0.384459    62A     -0.372175

  @DF-RHF Final Energy:  -869.49095456050838

   => Energetics <=

    Nuclear Repulsion Energy =           1089.6016289307808620
    One-Electron Energy =               -3357.6820074495121844
    Two-Electron Energy =                1398.5894239582230512
    Total Energy =                       -869.4909545605082712
*** Psi4 exiting successfully. Buy a developer a beer!
