                               Psi4 1.2a1.dev875

  ==> Input File <==

--------------------------------------------------------------------------
memory 60 Gb

molecule protein_15 {
0 1
 N   17.407  27.054  -1.437
 C   17.227  26.751  -0.026
 C   18.555  26.446   0.653
 O   19.003  25.309   0.692
 C   16.258  25.572   0.084
 C   15.759  25.336   1.493
 O   16.399  25.780   2.453
 O   14.731  24.675   1.645
 H   17.860  26.421  -2.023
 H   16.724  27.595   0.500
 H   16.724  24.663  -0.337
 H   15.363  25.845  -0.519
 H   16.737  25.171   3.109
 H   16.947  27.858  -1.864
 H   19.060  27.284   1.155
}

set {
basis cc-pvqz
scf_type df
guess sad
DF_SCF_TYPE DFJK
}

energy('HF')
--------------------------------------------------------------------------

    Molecular point group: c1

    Geometry (in Angstrom), charge = 0, multiplicity = 1:

       Center              X                  Y                   Z               Mass
    ------------   -----------------  -----------------  -----------------  -----------------
           N          0.493823883501     1.198273883779    -2.145822197285    14.003074004780
           C          0.313823883501     0.895273883779    -0.734822197285    12.000000000000
           C          1.641823883501     0.590273883779    -0.055822197285    12.000000000000
           O          2.089823883501    -0.546726116221    -0.016822197285    15.994914619560
           C         -0.655176116499    -0.283726116221    -0.624822197285    12.000000000000
           C         -1.154176116499    -0.519726116221     0.784177802715    12.000000000000
           O         -0.514176116499    -0.075726116221     1.744177802715    15.994914619560
           O         -2.182176116499    -1.180726116221     0.936177802715    15.994914619560
           H          0.946823883501     0.565273883779    -2.731822197285     1.007825032070
           H         -0.189176116499     1.739273883779    -0.208822197285     1.007825032070
           H         -0.189176116499    -1.192726116221    -1.045822197285     1.007825032070
           H         -1.550176116499    -0.010726116221    -1.227822197285     1.007825032070
           H         -0.176176116499    -0.684726116221     2.400177802715     1.007825032070
           H          0.033823883501     2.002273883779    -2.572822197285     1.007825032070
           H          2.146823883501     1.428273883779     0.446177802715     1.007825032070

  Charge       = 0
  Multiplicity = 1
  Basis Set: CC-PVQZ
    Blend: CC-PVQZ
  Basis Set: (CC-PVQZ AUX)
    Blend: CC-PVQZ-JKFIT

    Orbital Energies (a.u.)
    -----------------------

    Doubly Occupied:

       1A    -20.616960     2A    -20.569721     3A    -20.525476
       4A    -15.553969     5A    -11.376529     6A    -11.345388
       7A    -11.293847     8A    -11.244335     9A     -1.512671
      10A     -1.399486    11A     -1.344114    12A     -1.205909
      13A     -1.049698    14A     -0.942354    15A     -0.885361
      16A     -0.798730    17A     -0.735676    18A     -0.708043
      19A     -0.701350    20A     -0.668646    21A     -0.661647
      22A     -0.635123    23A     -0.627922    24A     -0.567555
      25A     -0.536354    26A     -0.526697    27A     -0.514044
      28A     -0.466945    29A     -0.454259    30A     -0.443894
      31A     -0.382344

  @DF-RHF Final Energy:  -434.74143390715000

   => Energetics <=

    Nuclear Repulsion Energy =            383.6628521314407863
    One-Electron Energy =               -1356.2185881848588451
    Two-Electron Energy =                 537.8143021462681190
    Total Energy =                       -434.7414339071499398
*** Psi4 exiting successfully. Buy a developer a beer!
